 Gaussian 16, Revision B.01,
 Gaussian 16:  EM64L-G16RevB.01 20-Dec-2017

 -------------------------------------------------
 # opt=modredundant b3lyp/6-31g* geom=connectivity
 -------------------------------------------------

 --------------
 Butadiene scan
 --------------
 Symbolic Z-matrix:
 Charge =  0 Multiplicity = 1

 SCF Done:  E(RB3LYP) =  -155.992139567     A.U. after   11 cycles
 Optimization completed.
    -- Stationary point found.
 SCF Done:  E(RB3LYP) =  -155.990399075     A.U. after   12 cycles
 SCF Done:  E(RB3LYP) =  -155.990922092     A.U. after   11 cycles
 SCF Done:  E(RB3LYP) =  -155.990955847     A.U. after   10 cycles
 SCF Done:  E(RB3LYP) =  -155.990956382     A.U. after    8 cycles
 Optimization completed.
 SCF Done:  E(RB3LYP) =  -155.986994572     A.U. after   11 cycles
 SCF Done:  E(RB3LYP) =  -155.987714013     A.U. after   11 cycles
 SCF Done:  E(RB3LYP) =  -155.987732345     A.U. after   10 cycles
 SCF Done:  E(RB3LYP) =  -155.982344528     A.U. after   12 cycles
 SCF Done:  E(RB3LYP) =  -155.983486547     A.U. after   12 cycles
 SCF Done:  E(RB3LYP) =  -155.986382082     A.U. after   12 cycles
 SCF Done:  E(RB3LYP) =  -155.986384634     A.U. after    8 cycles
 SCF Done:  E(RB3LYP) =  -155.985392132     A.U. after   11 cycles
 SCF Done:  E(RB3LYP) =  -155.986286582     A.U. after   11 cycles
 SCF Done:  E(RB3LYP) =  -155.986312441     A.U. after   10 cycles
 SCF Done:  E(RB3LYP) =  -155.986313219     A.U. after    8 cycles
    -- Stationary point found.
 SCF Done:  E(RB3LYP) =  -155.984441554     A.U. after   11 cycles
 SCF Done:  E(RB3LYP) =  -155.985840744     A.U. after   12 cycles
 SCF Done:  E(RB3LYP) =  -155.985948632     A.U. after   10 cycles
 SCF Done:  E(RB3LYP) =  -155.985951260     A.U. after    8 cycles
 Optimization completed.
    -- Stationary point found.

                         Standard orientation:
 ---------------------------------------------------------------------
 Center     Atomic      Atomic             Coordinates (Angstroms)
 Number     Number       Type             X           Y           Z
 ---------------------------------------------------------------------
      1          6           0        0.735772    0.563123    0.000166
      2          1           0        1.193612    1.551906    0.000091
      3          6           0       -0.735712    0.563095   -0.000031
      4          1           0       -1.193761    1.551782   -0.000385
      5          6           0       -1.547123   -0.503201    0.000009
      6          1           0       -1.171628   -1.523553    0.000020
      7          1           0       -2.626811   -0.387637   -0.000053
      8          6           0        1.547125   -0.503208   -0.000031
      9          1           0        1.171393   -1.523477    0.000173
     10          1           0        2.626829   -0.387873   -0.000527
 ---------------------------------------------------------------------

 The electronic state is 1-A.
 Alpha  occ. eigenvalues --  -10.19202 -10.19171 -10.18282 -10.18282  -0.79823
 Alpha  occ. eigenvalues --   -0.72473  -0.61822  -0.52663  -0.48754  -0.43656
 Alpha  occ. eigenvalues --   -0.41617  -0.35980  -0.34784  -0.31706  -0.22734
 Alpha virt. eigenvalues --   -0.03014   0.09641   0.10083   0.11473   0.15315
 Alpha virt. eigenvalues --    0.19205   0.20160   0.21005   0.30622   0.34056
 Alpha virt. eigenvalues --    0.43249   0.46726   0.52744   0.53218   0.58674

 Mulliken charges:
               1
     1  C   -0.077532
     2  H    0.126922
     3  C   -0.077569
     4  H    0.126921
     5  C   -0.334451
     6  H    0.140755
     7  H    0.144325
     8  C   -0.334464
     9  H    0.140755
    10  H    0.144338
 Sum of Mulliken charges =  -0.00000

 Dipole moment (field-independent basis, Debye):
    X=              0.0000    Y=              0.0852    Z=             -0.0004  Tot=              0.0852
 Quadrupole moment (field-independent basis, Debye-Ang):
   XX=            -22.7347   YY=            -22.4608   ZZ=            -27.9023
   XY=             -0.0003   XZ=             -0.0006   YZ=             -0.0004

 Normal termination of Gaussian 16 at Fri May  3 15:07:14 2019.
