 Gaussian 16, Revision B.01,
 Gaussian 16:  EM64L-G16RevB.01 20-Dec-2017

 ----------------------------------------------------------
 # opt=(verytight) b3lyp/6-31g* freq=IntModes Int=Ultrafine
 ----------------------------------------------------------

 --------------------------------------
 Butadiene optimization and frequencies
 --------------------------------------
 Symbolic Z-matrix:
 Charge =  0 Multiplicity = 1

 SCF Done:  E(RB3LYP) =  -155.984970988     A.U. after   11 cycles
 SCF Done:  E(RB3LYP) =  -155.991835223     A.U. after   10 cycles
 SCF Done:  E(RB3LYP) =  -155.992129950     A.U. after    9 cycles
 SCF Done:  E(RB3LYP) =  -155.992139190     A.U. after    7 cycles
 SCF Done:  E(RB3LYP) =  -155.992139555     A.U. after    6 cycles
 SCF Done:  E(RB3LYP) =  -155.992139567     A.U. after    6 cycles
 SCF Done:  E(RB3LYP) =  -155.992139567     A.U. after    4 cycles
 Optimization completed.
    -- Stationary point found.
 Normal termination of Gaussian 16 at Mon Apr 29 21:11:46 2019.

 --------------------------------------------------------------------
 #N Geom=AllCheck Guess=TCheck SCRF=Check GenChk RB3LYP/6-31G(d) Freq
 --------------------------------------------------------------------

 Structure from the checkpoint file:  "/home/sonatak/tfm/opt+freq.chk"
 --------------------------------------
 Butadiene optimization and frequencies
 --------------------------------------
 Charge =  0 Multiplicity = 1

                         Standard orientation:
 ---------------------------------------------------------------------
 Center     Atomic      Atomic             Coordinates (Angstroms)
 Number     Number       Type             X           Y           Z
 ---------------------------------------------------------------------
      1          6           0       -0.326073    0.651727    0.000000
      2          1           0       -1.416526    0.645378    0.000000
      3          6           0        0.326073   -0.651727    0.000000
      4          1           0        1.416526   -0.645378    0.000000
      5          6           0       -0.326073   -1.822966    0.000000
      6          1           0       -1.413010   -1.869223    0.000000
      7          1           0        0.201317   -2.772082    0.000000
      8          6           0        0.326073    1.822966    0.000000
      9          1           0        1.413010    1.869223    0.000000
     10          1           0       -0.201317    2.772082    0.000000
 ---------------------------------------------------------------------

 SCF Done:  E(RB3LYP) =  -155.992139567     A.U. after    1 cycles

 The electronic state is 1-AG.
 Alpha  occ. eigenvalues --  -10.19244 -10.19210 -10.18379 -10.18379  -0.80144
 Alpha  occ. eigenvalues --   -0.72964  -0.60309  -0.55038  -0.46394  -0.45916
 Alpha  occ. eigenvalues --   -0.39135  -0.38493  -0.34435  -0.31982  -0.22902
 Alpha virt. eigenvalues --   -0.02250   0.08546   0.11554   0.12566   0.13074
 Alpha virt. eigenvalues --    0.17488   0.19253   0.21195   0.32520   0.33674
 Alpha virt. eigenvalues --    0.39728   0.47204   0.51672   0.53025   0.57792

 Mulliken charges:
               1
     1  C   -0.059769
     2  H    0.126544
     3  C   -0.059769
     4  H    0.126544
     5  C   -0.352929
     6  H    0.141459
     7  H    0.144695
     8  C   -0.352929
     9  H    0.141459
    10  H    0.144695
 Sum of Mulliken charges =   0.00000

 Dipole moment (field-independent basis, Debye):
    X=              0.0000    Y=              0.0000    Z=              0.0000  Tot=              0.0000
 Quadrupole moment (field-independent basis, Debye-Ang):
   XX=            -22.6240   YY=            -22.8412   ZZ=            -27.9364
   XY=             -0.0171   XZ=              0.0000   YZ=              0.0000

  Exact polarizability:  41.081  10.137  75.768   0.000   0.000  15.515
 Approx polarizability:  59.585  24.306 121.507  -0.000  -0.000  21.585

                      1                      2                      3
                     AU                     BU                     AG
 Frequencies --    177.1851               295.6483               516.0018
 Red. masses --      2.6425                 2.1628                 2.6854
 Frc consts  --      0.0489                 0.1114                 0.4213
 IR Inten    --      0.2124                 2.5986                 0.0000

                      4                      5                      6
                     AU                     BG                     AG
 Frequencies --    539.7109               781.8297               907.3334
 Red. masses --      1.0738                 1.6613                 1.8159
 Frc consts  --      0.1843                 0.5983                 0.8808
 IR Inten    --      7.9490                 0.0000                 0.0000

                      7                      8                      9
                     AU                     BG                     BG
 Frequencies --    927.9746               931.9042              1003.5429
 Red. masses --      1.3662                 1.3478                 1.1763
 Frc consts  --      0.6932                 0.6897                 0.6980
 IR Inten    --     78.7723                 0.0000                 0.0000

                     10                     11                     12
                     BU                     AU                     AG
 Frequencies --   1010.9428              1064.7950              1240.5421
 Red. masses --      1.1982                 1.0908                 1.9556
 Frc consts  --      0.7215                 0.7287                 1.7732
 IR Inten    --      2.3121                25.6306                 0.0000

                     13                     14                     15
                     AG                     BU                     BU
 Frequencies --   1329.6349              1331.4976              1435.2429
 Red. masses --      1.3509                 1.2797                 1.2531
 Frc consts  --      1.4072                 1.3367                 1.5209
 IR Inten    --      0.0000                 2.0817                 2.6799

                     16                     17                     18
                     AG                     BU                     AG
 Frequencies --   1496.3035              1677.1471              1729.9602
 Red. masses --      1.2199                 3.5251                 4.4489
 Frc consts  --      1.6092                 5.8420                 7.8447
 IR Inten    --      0.0000                12.5043                 0.0000

                     19                     20                     21
                     AG                     BU                     BU
 Frequencies --   3146.3888              3156.7866              3163.3194
 Red. masses --      1.0813                 1.0815                 1.0690
 Frc consts  --      6.3072                 6.3502                 6.3025
 IR Inten    --      0.0000                32.0052                 8.4454

                     22                     23                     24
                     AG                     AG                     BU
 Frequencies --   3164.5548              3245.9118              3246.3305
 Red. masses --      1.0675                 1.1157                 1.1154
 Frc consts  --      6.2984                 6.9257                 6.9255
 IR Inten    --      0.0000                 0.0000                33.0294

 - Thermochemistry -
 -------------------
 Temperature   298.150 Kelvin.  Pressure   1.00000 Atm.
 Atom     1 has atomic number  6 and mass  12.00000

 Molecular mass:    54.04695 amu.
 Principal axes and moments of inertia in atomic units:
                           1         2         3
     Eigenvalues --    42.65498 409.35742 452.01240
           X            0.11293   0.99360   0.00000
           Y            0.99360  -0.11293   0.00000
           Z            0.00000  -0.00000   1.00000
 This molecule is an asymmetric top.
 Rotational symmetry number  2.
 Rotational temperatures (Kelvin)      2.03057     0.21159     0.19162
 Rotational constants (GHZ):          42.31021     4.40872     3.99268
 Zero-point vibrational energy     224422.4 (Joules/Mol)
                                   53.63823 (Kcal/Mol)
 Warning -- explicit consideration of   4 degrees of freedom as
           vibrations may cause significant error
 Vibrational temperatures:    254.93   425.37   742.41   776.52  1124.88
          (Kelvin)           1305.45  1335.15  1340.80  1443.87  1454.52
                             1532.00  1784.86  1913.05  1915.73  2064.99
                             2152.85  2413.04  2489.03  4526.95  4541.91
                             4551.31  4553.09  4670.14  4670.75

 Zero-point correction=                           0.085478 (Hartree/Particle)
 Thermal correction to Energy=                    0.090125
 Thermal correction to Enthalpy=                  0.091069
 Thermal correction to Gibbs Free Energy=         0.059685
 Sum of electronic and zero-point Energies=           -155.906662
 Sum of electronic and thermal Energies=              -155.902015
 Sum of electronic and thermal Enthalpies=            -155.901070
 Sum of electronic and thermal Free Energies=         -155.932455

                     E (Thermal)             CV                S
                      KCal/Mol        Cal/Mol-Kelvin    Cal/Mol-Kelvin
 Total                   56.554             15.723             66.054
 Electronic               0.000              0.000              0.000
 Translational            0.889              2.981             37.884
 Rotational               0.889              2.981             22.205
 Vibrational             54.777              9.762              5.965
 Vibration     1          0.628              1.870              2.358
 Vibration     2          0.690              1.682              1.441
 Vibration     3          0.871              1.215              0.619
 Vibration     4          0.895              1.162              0.566

 Optimization completed.
    -- Stationary point found.
 Normal termination of Gaussian 16 at Mon Apr 29 21:13:43 2019.
