 Gaussian 16, Revision B.01,
 Gaussian 16:  EM64L-G16RevB.01 20-Dec-2017

 -------------------------------------------------
 # opt=modredundant b3lyp/6-31g* geom=connectivity
 -------------------------------------------------

 -------------------
 Title Card Required
 -------------------
 Symbolic Z-matrix:
 Charge =  0 Multiplicity = 1

 SCF Done:  E(RB3LYP) =  -155.984970988     A.U. after   11 cycles
 SCF Done:  E(RB3LYP) =  -155.991835223     A.U. after   10 cycles
 SCF Done:  E(RB3LYP) =  -155.992129950     A.U. after    9 cycles
 SCF Done:  E(RB3LYP) =  -155.992139190     A.U. after    7 cycles
 SCF Done:  E(RB3LYP) =  -155.992139555     A.U. after    6 cycles
 Optimization completed.
    -- Stationary point found.
 SCF Done:  E(RB3LYP) =  -155.991657736     A.U. after    9 cycles
 SCF Done:  E(RB3LYP) =  -155.991688613     A.U. after   10 cycles
 SCF Done:  E(RB3LYP) =  -155.991795108     A.U. after    9 cycles
 Optimization completed.
 SCF Done:  E(RB3LYP) =  -155.990624776     A.U. after   10 cycles
 SCF Done:  E(RB3LYP) =  -155.990776485     A.U. after   10 cycles
 SCF Done:  E(RB3LYP) =  -155.986485650     A.U. after    7 cycles
 SCF Done:  E(RB3LYP) =  -155.986022709     A.U. after    9 cycles
 SCF Done:  E(RB3LYP) =  -155.986332230     A.U. after   10 cycles
 SCF Done:  E(RB3LYP) =  -155.986334844     A.U. after    7 cycles
 SCF Done:  E(RB3LYP) =  -155.985696157     A.U. after    9 cycles
 SCF Done:  E(RB3LYP) =  -155.986069804     A.U. after   10 cycles
 SCF Done:  E(RB3LYP) =  -155.986074454     A.U. after    8 cycles
    -- Stationary point found.
 SCF Done:  E(RB3LYP) =  -155.985522210     A.U. after    9 cycles
 SCF Done:  E(RB3LYP) =  -155.985945867     A.U. after   10 cycles
 SCF Done:  E(RB3LYP) =  -155.985951278     A.U. after    8 cycles
 Optimization completed.
    -- Stationary point found.

                         Standard orientation:
 ---------------------------------------------------------------------
 Center     Atomic      Atomic             Coordinates (Angstroms)
 Number     Number       Type             X           Y           Z
 ---------------------------------------------------------------------
      1          6           0        0.000000   -0.735676   -0.563203
      2          1           0        0.000166   -1.193817   -1.551849
      3          6           0       -0.000000    0.735676   -0.563203
      4          1           0       -0.000166    1.193817   -1.551849
      5          6           0        0.000000    1.546888    0.503271
      6          1           0       -0.000448    1.170966    1.523462
      7          1           0        0.000246    2.626592    0.387985
      8          6           0       -0.000000   -1.546888    0.503271
      9          1           0        0.000448   -1.170966    1.523462
     10          1           0       -0.000246   -2.626592    0.387985
 ---------------------------------------------------------------------

 The electronic state is 1-A.
 Alpha  occ. eigenvalues --  -10.19201 -10.19170 -10.18282 -10.18282  -0.79825
 Alpha  occ. eigenvalues --   -0.72471  -0.61823  -0.52662  -0.48756  -0.43655
 Alpha  occ. eigenvalues --   -0.41616  -0.35979  -0.34787  -0.31708  -0.22732
 Alpha virt. eigenvalues --   -0.03015   0.09642   0.10084   0.11472   0.15316
 Alpha virt. eigenvalues --    0.19206   0.20166   0.21005   0.30619   0.34058
 Alpha virt. eigenvalues --    0.43253   0.46728   0.52744   0.53220   0.58678

 Mulliken charges:
               1
     1  C   -0.077551
     2  H    0.126924
     3  C   -0.077551
     4  H    0.126924
     5  C   -0.334453
     6  H    0.140750
     7  H    0.144330
     8  C   -0.334453
     9  H    0.140750
    10  H    0.144330
 Sum of Mulliken charges =   0.00000

 Dipole moment (field-independent basis, Debye):
    X=              0.0000    Y=              0.0000    Z=             -0.0853  Tot=              0.0853
 Quadrupole moment (field-independent basis, Debye-Ang):
   XX=            -27.9022   YY=            -22.7351   ZZ=            -22.4612
   XY=              0.0001   XZ=              0.0000   YZ=              0.0000

 Normal termination of Gaussian 16 at Fri Apr 26 11:01:24 2019.
