 Gaussian 16, Revision B.01,
 Gaussian 16:  EM64L-G16RevB.01 20-Dec-2017

 -----------------------------------------------------
 # opt=modredundant cam-b3lyp/6-31G* geom=connectivity
 -----------------------------------------------------

 -------------------
 Title Card Required
 -------------------
 Symbolic Z-matrix:
 Charge =  0 Multiplicity = 1

 SCF Done:  E(RCAM-B3LYP) =  -155.879709705     A.U. after   11 cycles
 SCF Done:  E(RCAM-B3LYP) =  -155.886889027     A.U. after   10 cycles
 SCF Done:  E(RCAM-B3LYP) =  -155.887180170     A.U. after    9 cycles
 SCF Done:  E(RCAM-B3LYP) =  -155.887189710     A.U. after    8 cycles
 SCF Done:  E(RCAM-B3LYP) =  -155.887190153     A.U. after    7 cycles
 Optimization completed.
    -- Stationary point found.
 SCF Done:  E(RCAM-B3LYP) =  -155.886720554     A.U. after    9 cycles
 SCF Done:  E(RCAM-B3LYP) =  -155.886765051     A.U. after   11 cycles
 SCF Done:  E(RCAM-B3LYP) =  -155.886876283     A.U. after    9 cycles
 Optimization completed.
 SCF Done:  E(RCAM-B3LYP) =  -155.885778361     A.U. after   11 cycles
 SCF Done:  E(RCAM-B3LYP) =  -155.885949254     A.U. after   11 cycles
 SCF Done:  E(RCAM-B3LYP) =  -155.882356298     A.U. after    8 cycles
 SCF Done:  E(RCAM-B3LYP) =  -155.881748001     A.U. after   10 cycles
 SCF Done:  E(RCAM-B3LYP) =  -155.882085351     A.U. after   11 cycles
 SCF Done:  E(RCAM-B3LYP) =  -155.882088541     A.U. after    8 cycles
 SCF Done:  E(RCAM-B3LYP) =  -155.881318271     A.U. after   10 cycles
 SCF Done:  E(RCAM-B3LYP) =  -155.881728930     A.U. after   11 cycles
 SCF Done:  E(RCAM-B3LYP) =  -155.881734524     A.U. after    8 cycles
    -- Stationary point found.
 SCF Done:  E(RCAM-B3LYP) =  -155.881098206     A.U. after   10 cycles
 SCF Done:  E(RCAM-B3LYP) =  -155.881568272     A.U. after   11 cycles
 SCF Done:  E(RCAM-B3LYP) =  -155.881574659     A.U. after    9 cycles
 Optimization completed.
    -- Stationary point found.

                         Standard orientation:
 ---------------------------------------------------------------------
 Center     Atomic      Atomic             Coordinates (Angstroms)
 Number     Number       Type             X           Y           Z
 ---------------------------------------------------------------------
      1          6           0       -0.000000   -0.736025    0.564219
      2          1           0       -0.000179   -1.197547    1.549714
      3          6           0        0.000000    0.736025    0.564219
      4          1           0        0.000179    1.197547    1.549714
      5          6           0       -0.000000    1.533797   -0.503182
      6          1           0        0.000519    1.147793   -1.518511
      7          1           0       -0.000189    2.613435   -0.397427
      8          6           0        0.000000   -1.533797   -0.503182
      9          1           0       -0.000519   -1.147793   -1.518511
     10          1           0        0.000189   -2.613435   -0.397427
 ---------------------------------------------------------------------

 The electronic state is 1-A.
 Alpha  occ. eigenvalues --  -10.26315 -10.26285 -10.25374 -10.25373  -0.88153
 Alpha  occ. eigenvalues --   -0.80457  -0.69208  -0.59679  -0.55908  -0.50398
 Alpha  occ. eigenvalues --   -0.48136  -0.42182  -0.40816  -0.38205  -0.28338
 Alpha virt. eigenvalues --    0.02274   0.15295   0.15697   0.16586   0.20679
 Alpha virt. eigenvalues --    0.24778   0.25872   0.26357   0.36323   0.39791
 Alpha virt. eigenvalues --    0.49454   0.52313   0.58660   0.59424   0.65073

 Mulliken charges:
               1
     1  C   -0.083299
     2  H    0.131901
     3  C   -0.083299
     4  H    0.131901
     5  C   -0.337955
     6  H    0.142497
     7  H    0.146856
     8  C   -0.337955
     9  H    0.142497
    10  H    0.146856
 Sum of Mulliken charges =  -0.00000

 Dipole moment (field-independent basis, Debye):
    X=             -0.0000    Y=             -0.0000    Z=              0.0865  Tot=              0.0865
 Quadrupole moment (field-independent basis, Debye-Ang):
   XX=            -27.9580   YY=            -22.7586   ZZ=            -22.4439
   XY=              0.0002   XZ=              0.0000   YZ=              0.0000

 Normal termination of Gaussian 16 at Fri Apr 26 10:46:39 2019.
