 Gaussian 16, Revision B.01,
 Gaussian 16:  EM64L-G16RevB.01 20-Dec-2017

 -------------------------------------------------
 # opt=modredundant b3lyp/6-31+g geom=connectivity
 -------------------------------------------------

 -------------------
 Title Card Required
 -------------------
 Symbolic Z-matrix:
 Charge =  0 Multiplicity = 1

 SCF Done:  E(RB3LYP) =  -155.961876244     A.U. after    9 cycles
 SCF Done:  E(RB3LYP) =  -155.968215825     A.U. after    9 cycles
 SCF Done:  E(RB3LYP) =  -155.968483310     A.U. after    8 cycles
 SCF Done:  E(RB3LYP) =  -155.968491093     A.U. after    7 cycles
 Optimization completed.
    -- Stationary point found.
 SCF Done:  E(RB3LYP) =  -155.967975989     A.U. after    9 cycles
 SCF Done:  E(RB3LYP) =  -155.968009179     A.U. after    9 cycles
 SCF Done:  E(RB3LYP) =  -155.968140962     A.U. after    8 cycles
 Optimization completed.
 SCF Done:  E(RB3LYP) =  -155.966935900     A.U. after    9 cycles
 SCF Done:  E(RB3LYP) =  -155.967115846     A.U. after    8 cycles
 SCF Done:  E(RB3LYP) =  -155.967116973     A.U. after    8 cycles
 SCF Done:  E(RB3LYP) =  -155.962877060     A.U. after    8 cycles
 SCF Done:  E(RB3LYP) =  -155.962446678     A.U. after   10 cycles
 SCF Done:  E(RB3LYP) =  -155.962778550     A.U. after   10 cycles
 SCF Done:  E(RB3LYP) =  -155.962781156     A.U. after    9 cycles
 SCF Done:  E(RB3LYP) =  -155.962176784     A.U. after   10 cycles
 SCF Done:  E(RB3LYP) =  -155.962566656     A.U. after   10 cycles
 SCF Done:  E(RB3LYP) =  -155.962570667     A.U. after    8 cycles
    -- Stationary point found.
 SCF Done:  E(RB3LYP) =  -155.962030417     A.U. after    9 cycles
 SCF Done:  E(RB3LYP) =  -155.962463356     A.U. after   10 cycles
 SCF Done:  E(RB3LYP) =  -155.962468011     A.U. after    8 cycles
 Optimization completed.
    -- Stationary point found.

                         Standard orientation:
 ---------------------------------------------------------------------
 Center     Atomic      Atomic             Coordinates (Angstroms)
 Number     Number       Type             X           Y           Z
 ---------------------------------------------------------------------
      1          6           0        0.736877   -0.566686    0.000011
      2          1           0        1.193332   -1.555956   -0.000177
      3          6           0       -0.736864   -0.566675    0.000003
      4          1           0       -1.193356   -1.555932    0.000144
      5          6           0       -1.551781    0.506214   -0.000017
      6          1           0       -1.177121    1.526563    0.000347
      7          1           0       -2.631230    0.392149   -0.000178
      8          6           0        1.551781    0.506219    0.000001
      9          1           0        1.177067    1.526547   -0.000321
     10          1           0        2.631234    0.392200    0.000190
 ---------------------------------------------------------------------

 The electronic state is 1-A.
 Alpha  occ. eigenvalues --  -10.20140 -10.20117 -10.18978 -10.18975  -0.81200
 Alpha  occ. eigenvalues --   -0.73843  -0.63002  -0.53796  -0.49985  -0.45050
 Alpha  occ. eigenvalues --   -0.42759  -0.37042  -0.35801  -0.32916  -0.23874
 Alpha virt. eigenvalues --   -0.05074   0.01384   0.02370   0.02995   0.05066
 Alpha virt. eigenvalues --    0.06043   0.06886   0.06906   0.09621   0.10026
 Alpha virt. eigenvalues --    0.10327   0.11049   0.11527   0.15192   0.15480

 Mulliken charges:
               1
     1  C   -0.089598
     2  H    0.163507
     3  C   -0.089612
     4  H    0.163506
     5  C   -0.406091
     6  H    0.162191
     7  H    0.169997
     8  C   -0.406091
     9  H    0.162190
    10  H    0.170000
 Sum of Mulliken charges =   0.00000

 Dipole moment (field-independent basis, Debye):
    X=              0.0000    Y=             -0.0759    Z=              0.0000  Tot=              0.0759
 Quadrupole moment (field-independent basis, Debye-Ang):
   XX=            -23.6510   YY=            -23.0646   ZZ=            -29.6098
   XY=              0.0000   XZ=             -0.0001   YZ=              0.0001

 Normal termination of Gaussian 16 at Thu Apr 25 17:30:09 2019.
