 Gaussian 16, Revision B.01,
 Gaussian 16:  EM64L-G16RevB.01 20-Dec-2017

 -----------------------------------------------------
 # opt=modredundant cam-b3lyp/6-31+g geom=connectivity
 -----------------------------------------------------

 -------------------
 Title Card Required
 -------------------
 Symbolic Z-matrix:
 Charge =  0 Multiplicity = 1

 SCF Done:  E(RCAM-B3LYP) =  -155.854924682     A.U. after   10 cycles
 SCF Done:  E(RCAM-B3LYP) =  -155.861424596     A.U. after   10 cycles
 SCF Done:  E(RCAM-B3LYP) =  -155.861680988     A.U. after    9 cycles
 SCF Done:  E(RCAM-B3LYP) =  -155.861689435     A.U. after    8 cycles
 Optimization completed.
    -- Stationary point found.
 SCF Done:  E(RCAM-B3LYP) =  -155.861184868     A.U. after   10 cycles
 SCF Done:  E(RCAM-B3LYP) =  -155.861232464     A.U. after   10 cycles
 SCF Done:  E(RCAM-B3LYP) =  -155.861373021     A.U. after   10 cycles
 SCF Done:  E(RCAM-B3LYP) =  -155.861373265     A.U. after    8 cycles
 Optimization completed.
 SCF Done:  E(RCAM-B3LYP) =  -155.860242582     A.U. after   10 cycles
 SCF Done:  E(RCAM-B3LYP) =  -155.860445262     A.U. after   10 cycles
 SCF Done:  E(RCAM-B3LYP) =  -155.856885206     A.U. after    8 cycles
 SCF Done:  E(RCAM-B3LYP) =  -155.856313043     A.U. after   10 cycles
 SCF Done:  E(RCAM-B3LYP) =  -155.856674617     A.U. after   10 cycles
 SCF Done:  E(RCAM-B3LYP) =  -155.856677425     A.U. after    8 cycles
 SCF Done:  E(RCAM-B3LYP) =  -155.855946965     A.U. after   10 cycles
 SCF Done:  E(RCAM-B3LYP) =  -155.856375063     A.U. after   10 cycles
 SCF Done:  E(RCAM-B3LYP) =  -155.856379991     A.U. after    9 cycles
    -- Stationary point found.
 SCF Done:  E(RCAM-B3LYP) =  -155.855759316     A.U. after   10 cycles
 SCF Done:  E(RCAM-B3LYP) =  -155.856239117     A.U. after   10 cycles
 SCF Done:  E(RCAM-B3LYP) =  -155.856244310     A.U. after    8 cycles
 Optimization completed.
    -- Stationary point found.

                         Standard orientation:
 ---------------------------------------------------------------------
 Center     Atomic      Atomic             Coordinates (Angstroms)
 Number     Number       Type             X           Y           Z
 ---------------------------------------------------------------------
      1          6           0       -0.000000   -0.736685    0.567286
      2          1           0       -0.000176   -1.195882    1.553614
      3          6           0        0.000000    0.736685    0.567286
      4          1           0        0.000176    1.195882    1.553614
      5          6           0       -0.000000    1.538688   -0.505825
      6          1           0        0.000373    1.154713   -1.521478
      7          1           0       -0.000147    2.617871   -0.400902
      8          6           0        0.000000   -1.538688   -0.505825
      9          1           0       -0.000373   -1.154713   -1.521478
     10          1           0        0.000147   -2.617871   -0.400902
 ---------------------------------------------------------------------

 The electronic state is 1-A.
 Alpha  occ. eigenvalues --  -10.27268 -10.27246 -10.26085 -10.26082  -0.89547
 Alpha  occ. eigenvalues --   -0.81842  -0.70374  -0.60793  -0.57129  -0.51786
 Alpha  occ. eigenvalues --   -0.49276  -0.43211  -0.41806  -0.39311  -0.29342
 Alpha virt. eigenvalues --   -0.00308   0.04473   0.05239   0.05723   0.07506
 Alpha virt. eigenvalues --    0.09688   0.09741   0.10185   0.12688   0.13076
 Alpha virt. eigenvalues --    0.13130   0.14255   0.14436   0.18379   0.18662

 Mulliken charges:
               1
     1  C   -0.108839
     2  H    0.170805
     3  C   -0.108839
     4  H    0.170805
     5  C   -0.400927
     6  H    0.164740
     7  H    0.174221
     8  C   -0.400927
     9  H    0.164740
    10  H    0.174221
 Sum of Mulliken charges =  -0.00000

 Dipole moment (field-independent basis, Debye):
    X=             -0.0000    Y=             -0.0000    Z=              0.0746  Tot=              0.0746
 Quadrupole moment (field-independent basis, Debye-Ang):
   XX=            -29.6407   YY=            -23.6569   ZZ=            -23.0457
   XY=              0.0003   XZ=              0.0000   YZ=              0.0000

 1\1\GINC-GADOLINIO\Scan\RCAM-B3LYP\6-31+G\C4H6\MASTER3\25-Apr-2019\0\\
 # opt=modredundant cam-b3lyp/6-31+g geom=connectivity\\Title Card Requ
 ired\\0,1\C,0.7250403014,0.1304634731,0.6287466838\H,1.177010084,0.211
 6127698,1.6150750553\C,-0.7250403047,-0.1304634724,0.6287466851\H,-1.1
 770100854,-0.2116127701,1.6150750574\C,-1.514367001,-0.27249602,-0.444
 364063\H,-1.1365272837,-0.2041280627,-1.4600169106\H,-2.5764659069,-0.
 4637596291,-0.339440771\C,1.5143669955,0.2724960217,-0.4443640657\H,1.
 1365272762,0.2041280654,-1.4600169126\H,2.5764659017,0.4637596307,-0.3

 Normal termination of Gaussian 16 at Thu Apr 25 20:50:11 2019.
