 Gaussian 16, Revision B.01,
 Gaussian 16:  EM64L-G16RevB.01 20-Dec-2017

 ------------------
 #p td B3LYP/6-31G*
 ------------------

 ---------------------------
 Scan step 15 E= -155.986288
 ---------------------------
 Symbolic Z-matrix:
 Charge =  0 Multiplicity = 1

                         Standard orientation:
 ---------------------------------------------------------------------
 Center     Atomic      Atomic             Coordinates (Angstroms)
 Number     Number       Type             X           Y           Z
 ---------------------------------------------------------------------
      1          6           0        0.320075   -0.661991    0.543321
      2          1           0        0.791537   -0.963409    1.479873
      3          6           0       -0.320075    0.661991    0.543321
      4          1           0       -0.791537    0.963409    1.479873
      5          6           0       -0.320075    1.520632   -0.483574
      6          1           0        0.188788    1.291932   -1.416725
      7          1           0       -0.823318    2.481430   -0.421625
      8          6           0        0.320075   -1.520632   -0.483574
      9          1           0       -0.188788   -1.291932   -1.416725
     10          1           0        0.823318   -2.481430   -0.421625
 ---------------------------------------------------------------------

 SCF Done:  E(RB3LYP) =  -155.986287691     A.U. after   11 cycles

 Excitation energies and oscillator strengths:

 Excited State   1:      Singlet-B      5.8536 eV  211.81 nm  f=0.3082  <S**2>=0.000
      15 -> 16         0.70036
 This state for optimization and/or second-order correction.
 Total Energy, E(TD-HF/TD-DFT) =  -155.771171958
 Copying the excited state density for this state as the 1-particle RhoCI density.

 Excited State   2:      Singlet-A      6.7428 eV  183.88 nm  f=0.0040  <S**2>=0.000
      14 -> 16         0.55833
      15 -> 17        -0.42944

 Excited State   3:      Singlet-B      7.5107 eV  165.08 nm  f=0.0000  <S**2>=0.000
      13 -> 16         0.70251

 The electronic state is 1-A.
 Alpha  occ. eigenvalues --  -10.19212 -10.19180 -10.18215 -10.18215  -0.79938
 Alpha  occ. eigenvalues --   -0.72403  -0.61449  -0.52843  -0.48526  -0.43135
 Alpha  occ. eigenvalues --   -0.42391  -0.36977  -0.34498  -0.30065  -0.23364
 Alpha virt. eigenvalues --   -0.01790   0.06881   0.11305   0.13153   0.14877
 Alpha virt. eigenvalues --    0.17129   0.18888   0.21392   0.31909   0.33804
 Alpha virt. eigenvalues --    0.39689   0.48476   0.53847   0.53863   0.57162

 Mulliken charges:
               1
     1  C   -0.089155
     2  H    0.131847
     3  C   -0.089155
     4  H    0.131847
     5  C   -0.328343
     6  H    0.143955
     7  H    0.141696
     8  C   -0.328343
     9  H    0.143955
    10  H    0.141696
 Sum of Mulliken charges =   0.00000

 Dipole moment (field-independent basis, Debye):
    X=             -0.0000    Y=             -0.0000    Z=              0.1406  Tot=              0.1406
 Quadrupole moment (field-independent basis, Debye-Ang):
   XX=            -26.4708   YY=            -23.7145   ZZ=            -22.9863
   XY=             -1.7272   XZ=             -0.0000   YZ=              0.0000

 Normal termination of Gaussian 16 at Mon May 20 18:53:59 2019.
