 Gaussian 16, Revision B.01,
 Gaussian 16:  EM64L-G16RevB.01 20-Dec-2017

 ------------------
 #p td B3LYP/6-31G*
 ------------------

 ---------------------------
 Scan step 10 E= -155.980576
 ---------------------------
 Symbolic Z-matrix:
 Charge =  0 Multiplicity = 1

                         Standard orientation:
 ---------------------------------------------------------------------
 Center     Atomic      Atomic             Coordinates (Angstroms)
 Number     Number       Type             X           Y           Z
 ---------------------------------------------------------------------
      1          6           0        0.529439   -0.520999    0.408286
      2          1           0        1.322756   -0.400376    1.149537
      3          6           0       -0.529439    0.520999    0.408286
      4          1           0       -1.322756    0.400376    1.149537
      5          6           0       -0.529439    1.607512   -0.366143
      6          1           0        0.252811    1.784334   -1.100462
      7          1           0       -1.319172    2.351656   -0.301931
      8          6           0        0.529439   -1.607512   -0.366143
      9          1           0       -0.252811   -1.784334   -1.100462
     10          1           0        1.319172   -2.351656   -0.301931
 ---------------------------------------------------------------------

 SCF Done:  E(RB3LYP) =  -155.980576064     A.U. after   12 cycles

 Excitation energies and oscillator strengths:

 Excited State   1:      Singlet-A      6.3001 eV  196.80 nm  f=0.0003  <S**2>=0.000
      14 -> 17        -0.46145
      15 -> 16         0.53493
 This state for optimization and/or second-order correction.
 Total Energy, E(TD-HF/TD-DFT) =  -155.749050023
 Copying the excited state density for this state as the 1-particle RhoCI density.

 Excited State   2:      Singlet-B      6.3476 eV  195.33 nm  f=0.0020  <S**2>=0.000
      14 -> 16         0.50566
      15 -> 17        -0.49289

 Excited State   3:      Singlet-B      7.8065 eV  158.82 nm  f=0.5782  <S**2>=0.000
      13 -> 17        -0.23050
      14 -> 16         0.46480
      15 -> 17         0.47669

 The electronic state is 1-A.
 Alpha  occ. eigenvalues --  -10.19209 -10.19180 -10.18128 -10.18128  -0.79678
 Alpha  occ. eigenvalues --   -0.72689  -0.60584  -0.53516  -0.47291  -0.44294
 Alpha  occ. eigenvalues --   -0.42118  -0.38290  -0.33844  -0.26296  -0.25738
 Alpha virt. eigenvalues --    0.01564   0.01732   0.13409   0.13936   0.14865
 Alpha virt. eigenvalues --    0.15061   0.17979   0.22385   0.32609   0.33185
 Alpha virt. eigenvalues --    0.36081   0.51823   0.52165   0.54138   0.56591

 Mulliken charges:
               1
     1  C   -0.113485
     2  H    0.141225
     3  C   -0.113485
     4  H    0.141225
     5  C   -0.312430
     6  H    0.144285
     7  H    0.140406
     8  C   -0.312430
     9  H    0.144285
    10  H    0.140406
 Sum of Mulliken charges =  -0.00000

 Dipole moment (field-independent basis, Debye):
    X=             -0.0000    Y=             -0.0000    Z=              0.1685  Tot=              0.1685
 Quadrupole moment (field-independent basis, Debye-Ang):
   XX=            -24.2070   YY=            -24.1418   ZZ=            -24.8610
   XY=             -1.1685   XZ=             -0.0000   YZ=             -0.0000

 Normal termination of Gaussian 16 at Mon May 20 18:53:37 2019.
