 Gaussian 16, Revision B.01,
 Gaussian 16:  EM64L-G16RevB.01 20-Dec-2017

 ------------------
 #p td B3LYP/6-31G*
 ------------------

 --------------------------
 Scan step 1 E= -155.992140
 --------------------------
 Symbolic Z-matrix:
 Charge =  0 Multiplicity = 1

                         Standard orientation:
 ---------------------------------------------------------------------
 Center     Atomic      Atomic             Coordinates (Angstroms)
 Number     Number       Type             X           Y           Z
 ---------------------------------------------------------------------
      1          6           0       -0.326073    0.651727    0.000000
      2          1           0       -1.416526    0.645378    0.000000
      3          6           0        0.326073   -0.651727    0.000000
      4          1           0        1.416526   -0.645378    0.000000
      5          6           0       -0.326073   -1.822966    0.000000
      6          1           0       -1.413010   -1.869223    0.000000
      7          1           0        0.201317   -2.772082    0.000000
      8          6           0        0.326073    1.822966    0.000000
      9          1           0        1.413010    1.869223    0.000000
     10          1           0       -0.201317    2.772082    0.000000
 ---------------------------------------------------------------------

 SCF Done:  E(RB3LYP) =  -155.992139567     A.U. after   11 cycles

 Excitation energies and oscillator strengths:

 Excited State   1:      Singlet-BU     6.0426 eV  205.18 nm  f=0.6556  <S**2>=0.000
      15 -> 16         0.70764
      15 <- 16        -0.11247
 This state for optimization and/or second-order correction.
 Total Energy, E(TD-HF/TD-DFT) =  -155.770078367
 Copying the excited state density for this state as the 1-particle RhoCI density.

 Excited State   2:      Singlet-AG     7.2013 eV  172.17 nm  f=0.0000  <S**2>=0.000
      14 -> 16         0.54148
      15 -> 17        -0.45431

 Excited State   3:      Singlet-AU     7.3777 eV  168.05 nm  f=0.0003  <S**2>=0.000
      13 -> 16         0.70327

 The electronic state is 1-AG.
 Alpha  occ. eigenvalues --  -10.19244 -10.19210 -10.18379 -10.18379  -0.80144
 Alpha  occ. eigenvalues --   -0.72964  -0.60309  -0.55038  -0.46393  -0.45916
 Alpha  occ. eigenvalues --   -0.39135  -0.38493  -0.34435  -0.31982  -0.22901
 Alpha virt. eigenvalues --   -0.02250   0.08546   0.11555   0.12566   0.13074
 Alpha virt. eigenvalues --    0.17488   0.19253   0.21195   0.32520   0.33674
 Alpha virt. eigenvalues --    0.39728   0.47204   0.51672   0.53025   0.57792

 Mulliken charges:
               1
     1  C   -0.059770
     2  H    0.126544
     3  C   -0.059770
     4  H    0.126544
     5  C   -0.352929
     6  H    0.141459
     7  H    0.144695
     8  C   -0.352929
     9  H    0.141459
    10  H    0.144695
 Sum of Mulliken charges =  -0.00000

 Dipole moment (field-independent basis, Debye):
    X=              0.0000    Y=              0.0000    Z=              0.0000  Tot=              0.0000
 Quadrupole moment (field-independent basis, Debye-Ang):
   XX=            -22.6240   YY=            -22.8412   ZZ=            -27.9364
   XY=             -0.0171   XZ=              0.0000   YZ=              0.0000

 Normal termination of Gaussian 16 at Mon May 20 18:52:47 2019.
