 Gaussian 16, Revision B.01,
 Gaussian 16:  EM64L-G16RevB.01 20-Dec-2017

 ------------------
 #p td B3LYP/6-31G*
 ------------------

 ---------------------------
 Scan step 19 E= -155.985951
 ---------------------------
 Symbolic Z-matrix:
 Charge =  0 Multiplicity = 1

                         Standard orientation:
 ---------------------------------------------------------------------
 Center     Atomic      Atomic             Coordinates (Angstroms)
 Number     Number       Type             X           Y           Z
 ---------------------------------------------------------------------
      1          6           0       -0.000000    0.735667    0.563205
      2          1           0        0.000153    1.193782    1.551874
      3          6           0       -0.000000   -0.735667    0.563205
      4          1           0       -0.000153   -1.193782    1.551874
      5          6           0        0.000000   -1.546869   -0.503257
      6          1           0       -0.000487   -1.170987   -1.523472
      7          1           0        0.000219   -2.626591   -0.388092
      8          6           0        0.000000    1.546869   -0.503257
      9          1           0        0.000487    1.170987   -1.523472
     10          1           0       -0.000219    2.626591   -0.388092
 ---------------------------------------------------------------------

 SCF Done:  E(RB3LYP) =  -155.985951272     A.U. after   11 cycles

 Excitation energies and oscillator strengths:

 Excited State   1:      Singlet-B      5.5159 eV  224.77 nm  f=0.3341  <S**2>=0.000
      15 -> 16         0.70908
      15 <- 16        -0.10753
 This state for optimization and/or second-order correction.
 Total Energy, E(TD-HF/TD-DFT) =  -155.783244145
 Copying the excited state density for this state as the 1-particle RhoCI density.

 Excited State   2:      Singlet-A      7.0834 eV  175.03 nm  f=0.0118  <S**2>=0.000
      14 -> 16         0.59795
      15 -> 17        -0.37694

 Excited State   3:      Singlet-B      7.2575 eV  170.84 nm  f=0.0003  <S**2>=0.000
      13 -> 16         0.70453

 The electronic state is 1-A.
 Alpha  occ. eigenvalues --  -10.19201 -10.19170 -10.18282 -10.18282  -0.79825
 Alpha  occ. eigenvalues --   -0.72471  -0.61823  -0.52662  -0.48756  -0.43656
 Alpha  occ. eigenvalues --   -0.41616  -0.35979  -0.34786  -0.31708  -0.22733
 Alpha virt. eigenvalues --   -0.03015   0.09643   0.10084   0.11472   0.15316
 Alpha virt. eigenvalues --    0.19206   0.20166   0.21004   0.30620   0.34060
 Alpha virt. eigenvalues --    0.43255   0.46728   0.52744   0.53219   0.58678

 Mulliken charges:
               1
     1  C   -0.077541
     2  H    0.126923
     3  C   -0.077541
     4  H    0.126923
     5  C   -0.334462
     6  H    0.140749
     7  H    0.144331
     8  C   -0.334462
     9  H    0.140749
    10  H    0.144331
 Sum of Mulliken charges =   0.00000

 Dipole moment (field-independent basis, Debye):
    X=             -0.0000    Y=             -0.0000    Z=              0.0852  Tot=              0.0852
 Quadrupole moment (field-independent basis, Debye-Ang):
   XX=            -27.9021   YY=            -22.7351   ZZ=            -22.4610
   XY=             -0.0000   XZ=             -0.0000   YZ=              0.0000

 Normal termination of Gaussian 16 at Mon May 20 18:54:21 2019.
