 Gaussian 16, Revision B.01,
 Gaussian 16:  EM64L-G16RevB.01 20-Dec-2017

 ------------------
 #p td B3LYP/6-31G*
 ------------------

 --------------------------
 Scan step 6 E= -155.984591
 --------------------------
 Symbolic Z-matrix:
 Charge =  0 Multiplicity = 1

                         Standard orientation:
 ---------------------------------------------------------------------
 Center     Atomic      Atomic             Coordinates (Angstroms)
 Number     Number       Type             X           Y           Z
 ---------------------------------------------------------------------
      1          6           0        0.589813   -0.441550    0.256411
      2          1           0        1.540018    0.016180    0.534834
      3          6           0       -0.589813    0.441550    0.256411
      4          1           0       -1.540018   -0.016180    0.534834
      5          6           0       -0.589813    1.694838   -0.211433
      6          1           0        0.324901    2.183561   -0.540594
      7          1           0       -1.501749    2.282636   -0.264105
      8          6           0        0.589813   -1.694838   -0.211433
      9          1           0       -0.324901   -2.183561   -0.540594
     10          1           0        1.501749   -2.282636   -0.264105
 ---------------------------------------------------------------------

 SCF Done:  E(RB3LYP) =  -155.984590679     A.U. after   12 cycles

 Excitation energies and oscillator strengths:

 Excited State   1:      Singlet-B      5.9789 eV  207.37 nm  f=0.4247  <S**2>=0.000
      14 -> 17        -0.12713
      15 -> 16         0.69499
 This state for optimization and/or second-order correction.
 Total Energy, E(TD-HF/TD-DFT) =  -155.764869890
 Copying the excited state density for this state as the 1-particle RhoCI density.

 Excited State   2:      Singlet-A      6.6260 eV  187.12 nm  f=0.0000  <S**2>=0.000
      14 -> 16         0.51827
      15 -> 17        -0.47774

 Excited State   3:      Singlet-A      7.5055 eV  165.19 nm  f=0.0007  <S**2>=0.000
      13 -> 16         0.68643
      15 -> 17        -0.13435

 The electronic state is 1-A.
 Alpha  occ. eigenvalues --  -10.19247 -10.19216 -10.18254 -10.18254  -0.79914
 Alpha  occ. eigenvalues --   -0.72855  -0.60228  -0.54636  -0.46085  -0.45886
 Alpha  occ. eigenvalues --   -0.40381  -0.38510  -0.34172  -0.29901  -0.23378
 Alpha virt. eigenvalues --   -0.01548   0.05722   0.12677   0.13306   0.14054
 Alpha virt. eigenvalues --    0.16626   0.18595   0.21592   0.31880   0.33994
 Alpha virt. eigenvalues --    0.37193   0.48833   0.51837   0.53734   0.59337

 Mulliken charges:
               1
     1  C   -0.088248
     2  H    0.133900
     3  C   -0.088248
     4  H    0.133900
     5  C   -0.331011
     6  H    0.141221
     7  H    0.144138
     8  C   -0.331011
     9  H    0.141221
    10  H    0.144138
 Sum of Mulliken charges =   0.00000

 Dipole moment (field-independent basis, Debye):
    X=             -0.0000    Y=              0.0000    Z=             -0.0573  Tot=              0.0573
 Quadrupole moment (field-independent basis, Debye-Ang):
   XX=            -22.7729   YY=            -23.3614   ZZ=            -27.2335
   XY=             -0.1293   XZ=              0.0000   YZ=             -0.0000

 Normal termination of Gaussian 16 at Mon May 20 18:53:12 2019.
