 Gaussian 16, Revision B.01,
 Gaussian 16:  EM64L-G16RevB.01 20-Dec-2017

 ------------------
 #p td B3LYP/6-31G*
 ------------------

 ------------------------
 Scan step 15 E= 0.005616
 ------------------------
 Symbolic Z-matrix:
 Charge =  0 Multiplicity = 1

                         Standard orientation:
 ---------------------------------------------------------------------
 Center     Atomic      Atomic             Coordinates (Angstroms)
 Number     Number       Type             X           Y           Z
 ---------------------------------------------------------------------
      1          6           0        0.716153    0.551036   -0.140080
      2          1           0        1.140011    1.487179   -0.503536
      3          6           0       -0.715299    0.554065    0.131042
      4          1           0       -1.128662    1.480725    0.529194
      5          6           0       -1.529483   -0.487352   -0.094460
      6          1           0       -1.155069   -1.426032   -0.497495
      7          1           0       -2.593485   -0.439183    0.117614
      8          6           0        1.527857   -0.489572    0.097742
      9          1           0        1.147006   -1.431325    0.487354
     10          1           0        2.594831   -0.440424   -0.098596
 ---------------------------------------------------------------------

 SCF Done:  E(RB3LYP) =  -155.985766683     A.U. after   12 cycles

 Excitation energies and oscillator strengths:

 Excited State   1:      Singlet-A      5.7942 eV  213.98 nm  f=0.2975  <S**2>=0.000
      15 -> 16         0.70085
 This state for optimization and/or second-order correction.
 Total Energy, E(TD-HF/TD-DFT) =  -155.772832344
 Copying the excited state density for this state as the 1-particle RhoCI density.

 Excited State   2:      Singlet-A      6.6978 eV  185.11 nm  f=0.0031  <S**2>=0.000
      14 -> 16         0.55082
      15 -> 17        -0.43908

 Excited State   3:      Singlet-A      7.5311 eV  164.63 nm  f=0.0017  <S**2>=0.000
      13 -> 16         0.70305

 The electronic state is 1-A.
 Alpha  occ. eigenvalues --  -10.19118 -10.19083 -10.18205 -10.18174  -0.80154
 Alpha  occ. eigenvalues --   -0.72190  -0.61601  -0.52823  -0.48662  -0.43180
 Alpha  occ. eigenvalues --   -0.42201  -0.37062  -0.34644  -0.30098  -0.23175
 Alpha virt. eigenvalues --   -0.01838   0.06784   0.11451   0.12923   0.15039
 Alpha virt. eigenvalues --    0.17401   0.19109   0.21300   0.31715   0.34041
 Alpha virt. eigenvalues --    0.40093   0.48601   0.53886   0.54155   0.57559

 Mulliken charges:
               1
     1  C   -0.088685
     2  H    0.132315
     3  C   -0.087896
     4  H    0.133124
     5  C   -0.329683
     6  H    0.143408
     7  H    0.141170
     8  C   -0.328619
     9  H    0.143545
    10  H    0.141321
 Sum of Mulliken charges =  -0.00000

 Dipole moment (field-independent basis, Debye):
    X=              0.0085    Y=              0.1451    Z=              0.0204  Tot=              0.1468
 Quadrupole moment (field-independent basis, Debye-Ang):
   XX=            -23.1192   YY=            -22.8906   ZZ=            -27.2062
   XY=              0.0171   XZ=             -0.7609   YZ=              0.0349

 Normal termination of Gaussian 16 at Mon May 20 18:37:47 2019.
