 Gaussian 16, Revision B.01,
 Gaussian 16:  EM64L-G16RevB.01 20-Dec-2017

 ------------------
 #p td B3LYP/6-31G*
 ------------------

 ------------------------
 Scan step 10 E= 0.011614
 ------------------------
 Symbolic Z-matrix:
 Charge =  0 Multiplicity = 1

                         Standard orientation:
 ---------------------------------------------------------------------
 Center     Atomic      Atomic             Coordinates (Angstroms)
 Number     Number       Type             X           Y           Z
 ---------------------------------------------------------------------
      1          6           0       -0.670739    0.414996    0.284249
      2          1           0       -0.853678    1.128182    1.087991
      3          6           0        0.670775    0.414991   -0.284270
      4          1           0        0.855069    1.131627   -1.084618
      5          6           0        1.672127   -0.368540    0.141944
      6          1           0        1.530844   -1.084402    0.948991
      7          1           0        2.661733   -0.326293   -0.303357
      8          6           0       -1.672285   -0.368126   -0.142258
      9          1           0       -1.531819   -1.082027   -0.951184
     10          1           0       -2.661422   -0.327009    0.304186
 ---------------------------------------------------------------------

 SCF Done:  E(RB3LYP) =  -155.979858128     A.U. after   12 cycles

 Excitation energies and oscillator strengths:

 Excited State   1:      Singlet-A      6.1864 eV  200.41 nm  f=0.0002  <S**2>=0.000
      14 -> 17         0.46402
      15 -> 16         0.53261
 This state for optimization and/or second-order correction.
 Total Energy, E(TD-HF/TD-DFT) =  -155.752512355
 Copying the excited state density for this state as the 1-particle RhoCI density.

 Excited State   2:      Singlet-A      6.2266 eV  199.12 nm  f=0.0001  <S**2>=0.000
      14 -> 16         0.53058
      15 -> 17         0.46585

 Excited State   3:      Singlet-A      7.7330 eV  160.33 nm  f=0.5989  <S**2>=0.000
      13 -> 17        -0.18364
      14 -> 16        -0.44796
      15 -> 17         0.51171

 The electronic state is 1-A.
 Alpha  occ. eigenvalues --  -10.19066 -10.19031 -10.18166 -10.18165  -0.79995
 Alpha  occ. eigenvalues --   -0.72399  -0.60890  -0.53598  -0.47279  -0.44394
 Alpha  occ. eigenvalues --   -0.42141  -0.38372  -0.34120  -0.25896  -0.25720
 Alpha virt. eigenvalues --    0.01228   0.01742   0.13681   0.14017   0.14828
 Alpha virt. eigenvalues --    0.15086   0.18332   0.22336   0.32731   0.33043
 Alpha virt. eigenvalues --    0.36357   0.51703   0.53027   0.54118   0.57154

 Mulliken charges:
               1
     1  C   -0.113191
     2  H    0.142581
     3  C   -0.113301
     4  H    0.142517
     5  C   -0.313693
     6  H    0.143991
     7  H    0.140429
     8  C   -0.313731
     9  H    0.143985
    10  H    0.140412
 Sum of Mulliken charges =   0.00000

 Dipole moment (field-independent basis, Debye):
    X=              0.0007    Y=              0.1612    Z=              0.0017  Tot=              0.1612
 Quadrupole moment (field-independent basis, Debye-Ang):
   XX=            -23.4438   YY=            -24.9482   ZZ=            -24.8775
   XY=              0.0036   XZ=             -0.7737   YZ=             -0.0003

 Normal termination of Gaussian 16 at Mon May 20 18:36:59 2019.
