 Gaussian 16, Revision B.01,
 Gaussian 16:  EM64L-G16RevB.01 20-Dec-2017

 ------------------
 #p td B3LYP/6-31G*
 ------------------

 -----------------------
 Scan step 6 E= 0.006729
 -----------------------
 Symbolic Z-matrix:
 Charge =  0 Multiplicity = 1

                         Standard orientation:
 ---------------------------------------------------------------------
 Center     Atomic      Atomic             Coordinates (Angstroms)
 Number     Number       Type             X           Y           Z
 ---------------------------------------------------------------------
      1          6           0       -0.629345   -0.366908    0.254938
      2          1           0       -0.575656   -1.418822    0.535629
      3          6           0        0.629980    0.365858    0.258269
      4          1           0        0.573455    1.419276    0.532119
      5          6           0        1.786478   -0.123270   -0.212492
      6          1           0        1.870418   -1.150899   -0.559883
      7          1           0        2.692027    0.475514   -0.241312
      8          6           0       -1.786681    0.123928   -0.211918
      9          1           0       -1.870233    1.151604   -0.559261
     10          1           0       -2.692606   -0.474320   -0.240071
 ---------------------------------------------------------------------

 SCF Done:  E(RB3LYP) =  -155.984295540     A.U. after   12 cycles

 Excitation energies and oscillator strengths:

 Excited State   1:      Singlet-A      5.8957 eV  210.29 nm  f=0.4248  <S**2>=0.000
      14 -> 17        -0.12311
      15 -> 16         0.69606
 This state for optimization and/or second-order correction.
 Total Energy, E(TD-HF/TD-DFT) =  -155.767630827
 Copying the excited state density for this state as the 1-particle RhoCI density.

 Excited State   2:      Singlet-A      6.5907 eV  188.12 nm  f=0.0001  <S**2>=0.000
      14 -> 16         0.52742
      15 -> 17        -0.46765

 Excited State   3:      Singlet-A      7.4771 eV  165.82 nm  f=0.0001  <S**2>=0.000
      13 -> 16         0.69774

 The electronic state is 1-A.
 Alpha  occ. eigenvalues --  -10.19145 -10.19110 -10.18291 -10.18274  -0.80096
 Alpha  occ. eigenvalues --   -0.72733  -0.60421  -0.54660  -0.46072  -0.45933
 Alpha  occ. eigenvalues --   -0.40395  -0.38547  -0.34258  -0.29929  -0.23248
 Alpha virt. eigenvalues --   -0.01784   0.05855   0.12649   0.13416   0.14131
 Alpha virt. eigenvalues --    0.16631   0.18859   0.21528   0.31840   0.34030
 Alpha virt. eigenvalues --    0.37418   0.49339   0.51713   0.53686   0.59385

 Mulliken charges:
               1
     1  C   -0.086959
     2  H    0.134143
     3  C   -0.087327
     4  H    0.134154
     5  C   -0.332181
     6  H    0.141230
     7  H    0.144287
     8  C   -0.332649
     9  H    0.141080
    10  H    0.144222
 Sum of Mulliken charges =  -0.00000

 Dipole moment (field-independent basis, Debye):
    X=              0.0036    Y=              0.0003    Z=             -0.0475  Tot=              0.0477
 Quadrupole moment (field-independent basis, Debye-Ang):
   XX=            -23.1745   YY=            -23.0062   ZZ=            -27.2112
   XY=              0.2725   XZ=             -0.0073   YZ=             -0.0054

 Normal termination of Gaussian 16 at Mon May 20 18:35:43 2019.
