 Gaussian 16, Revision B.01,
 Gaussian 16:  EM64L-G16RevB.01 20-Dec-2017

 ------------------
 #p td B3LYP/6-31G*
 ------------------

 ------------------------
 Scan step 19 E= 0.006231
 ------------------------
 Symbolic Z-matrix:
 Charge =  0 Multiplicity = 1

                         Standard orientation:
 ---------------------------------------------------------------------
 Center     Atomic      Atomic             Coordinates (Angstroms)
 Number     Number       Type             X           Y           Z
 ---------------------------------------------------------------------
      1          6           0        0.728641    0.588646   -0.000057
      2          1           0        1.210680    1.566265    0.000095
      3          6           0       -0.728644    0.588658   -0.000059
      4          1           0       -1.210690    1.566274    0.000243
      5          6           0       -1.484528   -0.518997    0.000017
      6          1           0       -1.039767   -1.511938   -0.000089
      7          1           0       -2.569522   -0.472263    0.000097
      8          6           0        1.484538   -0.519009    0.000018
      9          1           0        1.039724   -1.511925    0.000029
     10          1           0        2.569529   -0.472205    0.000110
 ---------------------------------------------------------------------

 SCF Done:  E(RB3LYP) =  -155.984659655     A.U. after   11 cycles

 Excitation energies and oscillator strengths:

 Excited State   1:      Singlet-A      5.3716 eV  230.81 nm  f=0.2887  <S**2>=0.000
      15 -> 16         0.70917
      15 <- 16        -0.10809
 This state for optimization and/or second-order correction.
 Total Energy, E(TD-HF/TD-DFT) =  -155.787256417
 Copying the excited state density for this state as the 1-particle RhoCI density.

 Excited State   2:      Singlet-A      7.0715 eV  175.33 nm  f=0.0097  <S**2>=0.000
      14 -> 16         0.58855
      15 -> 17        -0.39146

 Excited State   3:      Singlet-A      7.3065 eV  169.69 nm  f=0.0005  <S**2>=0.000
      13 -> 16         0.70459

 The electronic state is 1-A.
 Alpha  occ. eigenvalues --  -10.19054 -10.19020 -10.18162 -10.18161  -0.80226
 Alpha  occ. eigenvalues --   -0.72079  -0.61918  -0.52519  -0.49093  -0.43743
 Alpha  occ. eigenvalues --   -0.41193  -0.35975  -0.35081  -0.31910  -0.22444
 Alpha virt. eigenvalues --   -0.03090   0.09685   0.10374   0.11204   0.15622
 Alpha virt. eigenvalues --    0.19146   0.20826   0.21466   0.30278   0.34470
 Alpha virt. eigenvalues --    0.44382   0.47051   0.52733   0.54143   0.58991

 Mulliken charges:
               1
     1  C   -0.076258
     2  H    0.128031
     3  C   -0.076252
     4  H    0.128035
     5  C   -0.335280
     6  H    0.140082
     7  H    0.143418
     8  C   -0.335275
     9  H    0.140081
    10  H    0.143418
 Sum of Mulliken charges =  -0.00000

 Dipole moment (field-independent basis, Debye):
    X=             -0.0000    Y=              0.0987    Z=              0.0003  Tot=              0.0987
 Quadrupole moment (field-independent basis, Debye-Ang):
   XX=            -22.9331   YY=            -22.4022   ZZ=            -27.8770
   XY=              0.0002   XZ=             -0.0000   YZ=              0.0004

 Normal termination of Gaussian 16 at Mon May 20 18:38:32 2019.
