 Gaussian 16, Revision B.01,
 Gaussian 16:  EM64L-G16RevB.01 20-Dec-2017

 -------------------------------------------------
 # opt=modredundant b3lyp/6-31g* geom=connectivity
 -------------------------------------------------

 --------------
 Butadiene scan
 --------------
 Symbolic Z-matrix:
 Charge =  0 Multiplicity = 1

 SCF Done:  E(RB3LYP) =  -155.992139567     A.U. after   11 cycles
 Optimization completed.
    -- Stationary point found.
 SCF Done:  E(RB3LYP) =  -155.991657742     A.U. after   10 cycles
 SCF Done:  E(RB3LYP) =  -155.991791078     A.U. after    9 cycles
 SCF Done:  E(RB3LYP) =  -155.991794674     A.U. after    8 cycles
 Optimization completed.
 SCF Done:  E(RB3LYP) =  -155.990624862     A.U. after    9 cycles
 SCF Done:  E(RB3LYP) =  -155.990776595     A.U. after    9 cycles
 SCF Done:  E(RB3LYP) =  -155.990777220     A.U. after    7 cycles
 SCF Done:  E(RB3LYP) =  -155.988955076     A.U. after    9 cycles
 SCF Done:  E(RB3LYP) =  -155.989139020     A.U. after   10 cycles
 SCF Done:  E(RB3LYP) =  -155.989141770     A.U. after    8 cycles
 SCF Done:  E(RB3LYP) =  -155.986485651     A.U. after    7 cycles
 SCF Done:  E(RB3LYP) =  -155.986022731     A.U. after    9 cycles
 SCF Done:  E(RB3LYP) =  -155.986331968     A.U. after   10 cycles
 SCF Done:  E(RB3LYP) =  -155.986334837     A.U. after    7 cycles
 SCF Done:  E(RB3LYP) =  -155.985696178     A.U. after    9 cycles
 SCF Done:  E(RB3LYP) =  -155.986069805     A.U. after   10 cycles
 SCF Done:  E(RB3LYP) =  -155.986074453     A.U. after    8 cycles
    -- Stationary point found.
 SCF Done:  E(RB3LYP) =  -155.985522222     A.U. after    9 cycles
 SCF Done:  E(RB3LYP) =  -155.985945770     A.U. after   10 cycles
 SCF Done:  E(RB3LYP) =  -155.985951272     A.U. after    8 cycles
 Optimization completed.
    -- Stationary point found.

                         Standard orientation:
 ---------------------------------------------------------------------
 Center     Atomic      Atomic             Coordinates (Angstroms)
 Number     Number       Type             X           Y           Z
 ---------------------------------------------------------------------
      1          6           0       -0.000000   -0.735667    0.563205
      2          1           0       -0.000153   -1.193782    1.551874
      3          6           0        0.000000    0.735667    0.563205
      4          1           0        0.000153    1.193782    1.551874
      5          6           0       -0.000000    1.546869   -0.503257
      6          1           0        0.000487    1.170987   -1.523472
      7          1           0       -0.000219    2.626591   -0.388092
      8          6           0        0.000000   -1.546869   -0.503257
      9          1           0       -0.000487   -1.170987   -1.523472
     10          1           0        0.000219   -2.626591   -0.388092
 ---------------------------------------------------------------------

 The electronic state is 1-A.
 Alpha  occ. eigenvalues --  -10.19201 -10.19170 -10.18282 -10.18282  -0.79825
 Alpha  occ. eigenvalues --   -0.72471  -0.61823  -0.52662  -0.48756  -0.43656
 Alpha  occ. eigenvalues --   -0.41616  -0.35979  -0.34786  -0.31708  -0.22733
 Alpha virt. eigenvalues --   -0.03015   0.09643   0.10084   0.11472   0.15316
 Alpha virt. eigenvalues --    0.19206   0.20166   0.21004   0.30620   0.34060
 Alpha virt. eigenvalues --    0.43255   0.46728   0.52744   0.53219   0.58678

 Mulliken charges:
               1
     1  C   -0.077541
     2  H    0.126924
     3  C   -0.077541
     4  H    0.126924
     5  C   -0.334462
     6  H    0.140749
     7  H    0.144331
     8  C   -0.334462
     9  H    0.140749
    10  H    0.144331
 Sum of Mulliken charges =  -0.00000

 Dipole moment (field-independent basis, Debye):
    X=             -0.0000    Y=             -0.0000    Z=              0.0852  Tot=              0.0852
 Quadrupole moment (field-independent basis, Debye-Ang):
   XX=            -27.9021   YY=            -22.7351   ZZ=            -22.4610
   XY=              0.0000   XZ=              0.0000   YZ=              0.0000

 Normal termination of Gaussian 16 at Tue May  7 10:25:11 2019.
